# LAMMPS data file created from VNL: Compatible with atom_style atomic.
     16  atoms
      3  atom types
 0.000000  5.400000   xlo xhi
 0.000000  6.235383   ylo yhi
 0.000000  13.400000   zlo zhi

Masses

1   12.010700
2   28.085500
3   12.010700

Atoms

      1    2   3.600000  0.000000  5.000000
      2    1   4.500000  1.558846  5.000000
      3    1   1.800000  0.000000  5.000000
      4    2   3.600000  3.117691  5.000000
      5    1   4.500000  4.676537  5.000000
      6    2   0.900000  1.558846  5.000000
      7    1   1.800000  3.117691  5.000000
      8    2   0.900000  4.676537  5.000000
      9    3   2.800000  0.000000  8.400000
     10    3   3.500000  1.212436  8.400000
     11    3   1.400000  0.000000  8.400000
     12    3   2.800000  2.424871  8.400000
     13    3   3.500000  3.637307  8.400000
     14    3   0.700000  1.212436  8.400000
     15    3   1.400000  2.424871  8.400000
     16    3   0.700000  3.637307  8.400000
